20
Iteration: 0, Potential Energy: -1.102765, Kinetic Energy: 0.010518, Total Energy: -1.092247
Ar 0.000188 0.000071 0.000177
Ar 0.000255 0.000130 0.499804
Ar 0.000005 0.499989 -0.499983
Ar 0.499873 0.000229 0.000351
Ar 0.499987 0.000654 0.499762
Ar 0.499989 0.499864 0.499989
Ar 0.700402 0.700397 0.700578
Ar 0.299620 0.299160 0.299442
Ar 0.700459 0.299419 0.700283
Ar 0.700211 0.299139 0.299604
Ar 0.299595 0.700567 0.700400
Ar 0.299418 0.700383 0.299592
Ar 3.000000 0.000000 0.000000
Ar -0.000000 3.000000 0.000000
Ar 0.000000 0.000000 3.000000
Ar -2.000000 -2.000000 -2.000000
Ar -2.000000 3.000000 0.700000
Ar 1.099999 1.299999 1.499999
Ar 29.000000 4.000000 0.000000
Ar 0.700000 11.000000 0.100000
20
Iteration: 1, Potential Energy: -1.323548, Kinetic Energy: 0.229977, Total Energy: -1.093571
Ar 0.026041 0.010511 0.024930
Ar 0.033823 0.017449 0.472973
Ar 0.000566 0.498699 -0.497855
Ar 0.483634 0.031033 0.048339
Ar 0.492189 0.059301 0.483314
Ar 0.493270 0.484487 0.496110
Ar 0.709180 0.709061 0.732488
Ar 0.287176 0.240499 0.264120
Ar 0.723512 0.265733 0.700315
Ar 0.696855 0.240628 0.276949
Ar 0.289013 0.732750 0.710570
Ar 0.264808 0.709939 0.287859
Ar 2.999998 0.000000 0.000000
Ar -0.000000 2.999998 0.000001
Ar 0.000001 0.000001 2.999998
Ar -2.000000 -2.000000 -2.000000
Ar -1.999999 3.000000 0.700000
Ar 1.099935 1.299911 1.499890
Ar 29.000000 4.000000 0.000000
Ar 0.700000 11.000000 0.100000
20
Iteration: 2, Potential Energy: -1.457749, Kinetic Energy: 0.360339, Total Energy: -1.097410
Ar 0.096332 0.023622 0.081804
Ar 0.097174 0.022849 0.435720
Ar 0.002172 0.495426 -0.492074
Ar 0.470273 0.003589 0.083882
Ar 0.429559 0.082544 0.521055
Ar 0.473382 0.438053 0.482286
Ar 0.663472 0.661631 0.739296
Ar 0.249047 0.338382 0.243381
Ar 0.738459 0.260406 0.654743
Ar 0.711370 0.258034 0.259662
Ar 0.326063 0.741361 0.668430
Ar 0.242941 0.674438 0.322227
Ar 2.999993 0.000001 0.000001
Ar -0.000001 2.999993 0.000002
Ar 0.000002 0.000002 2.999993
Ar -2.000000 -2.000000 -2.000000
Ar -1.999997 2.999999 0.699999
Ar 1.099758 1.299669 1.499592
Ar 29.000000 4.000000 0.000000
Ar 0.700000 11.000000 0.100000
20
Iteration: 3, Potential Energy: -1.441961, Kinetic Energy: 0.348814, Total Energy: -1.093147
Ar 0.109284 0.017131 0.062153
Ar 0.069521 -0.005253 0.449532
Ar 0.005032 0.490500 -0.482420
Ar 0.491677 -0.009287 0.171666
Ar 0.454770 0.102790 0.498380
Ar 0.435269 0.478089 0.473524
Ar 0.692846 0.571169 0.767562
Ar 0.257320 0.324107 0.166622
Ar 0.780440 0.256448 0.622817
Ar 0.668079 0.269980 0.270006
Ar 0.339254 0.768867 0.695386
Ar 0.197037 0.736177 0.305650
Ar 2.999985 0.000002 0.000003
Ar -0.000003 2.999986 0.000005
Ar 0.000004 0.000004 2.999984
Ar -1.999999 -1.999999 -2.000000
Ar -1.999993 2.999999 0.699998
Ar 1.099479 1.299290 1.499132
Ar 29.000000 4.000000 0.000000
Ar 0.700000 11.000000 0.100000
20
Iteration: 4, Potential Energy: -1.364482, Kinetic Energy: 0.270759, Total Energy: -1.093723
Ar 0.095478 -0.028268 0.053882
Ar 0.095272 0.004638 0.417285
Ar 0.009498 0.483748 -0.468021
Ar 0.465705 -0.062327 0.181306
Ar 0.429985 0.151957 0.541334
Ar 0.373109 0.524823 0.452206
Ar 0.707491 0.536723 0.815532
Ar 0.324553 0.271782 0.157678
Ar 0.806404 0.215462 0.585177
Ar 0.657282 0.352881 0.253341
Ar 0.372044 0.783031 0.745330
Ar 0.164089 0.766791 0.266449
Ar 2.999973 0.000004 0.000005
Ar -0.000005 2.999975 0.000008
Ar 0.000007 0.000007 2.999972
Ar -1.999999 -1.999999 -1.999999
Ar -1.999988 2.999998 0.699997
Ar 1.099101 1.298776 1.498520
Ar 29.000000 4.000000 0.000000
Ar 0.700000 11.000000 0.100000
20
Iteration: 5, Potential Energy: -1.411861, Kinetic Energy: 0.317435, Total Energy: -1.094427
Ar 0.114060 -0.061755 0.021712
Ar 0.156510 0.027992 0.402592
Ar 0.015694 0.475162 -0.448675
Ar 0.433001 -0.127015 0.228963
Ar 0.440041 0.222623 0.524609
Ar 0.353608 0.567963 0.455449
Ar 0.669438 0.482764 0.795601
Ar 0.306546 0.266267 0.173900
Ar 0.785507 0.199844 0.553077
Ar 0.648501 0.423725 0.295623
Ar 0.433601 0.747091 0.760620
Ar 0.144895 0.777250 0.238806
Ar 2.999958 0.000006 0.000008
Ar -0.000007 2.999960 0.000013
Ar 0.000011 0.000011 2.999957
Ar -1.999999 -1.999999 -1.999999
Ar -1.999982 2.999996 0.699995
Ar 1.098614 1.298114 1.497750
Ar 29.000000 4.000000 0.000000
Ar 0.700000 11.000000 0.100000
20
Iteration: 6, Potential Energy: -1.337954, Kinetic Energy: 0.243817, Total Energy: -1.094137
Ar 0.158285 -0.069739 0.017372
Ar 0.136978 0.020957 0.412108
Ar 0.023850 0.464694 -0.423584
Ar 0.429215 -0.165411 0.281626
Ar 0.411361 0.232907 0.513644
Ar 0.322033 0.609785 0.462071
Ar 0.626632 0.398645 0.732981
Ar 0.316099 0.331893 0.193261
Ar 0.850340 0.161239 0.539226
Ar 0.641174 0.484104 0.310093
Ar 0.473869 0.743703 0.777951
Ar 0.112171 0.789942 0.186460
Ar 2.999941 0.000009 0.000011
Ar -0.000010 2.999943 0.000019
Ar 0.000016 0.000016 2.999938
Ar -1.999998 -1.999998 -1.999998
Ar -1.999974 2.999995 0.699992
Ar 1.098020 1.297316 1.496829
Ar 29.000000 4.000000 0.000000
Ar 0.700000 11.000000 0.100000
20
Iteration: 7, Potential Energy: -1.339679, Kinetic Energy: 0.247501, Total Energy: -1.092179
Ar 0.231853 -0.036596 0.052193
Ar 0.073314 0.025604 0.370979
Ar 0.034644 0.452905 -0.390483
Ar 0.432202 -0.149220 0.342126
Ar 0.402360 0.208150 0.497157
Ar 0.304388 0.581044 0.486087
Ar 0.629342 0.399605 0.704362
Ar 0.276154 0.387924 0.166945
Ar 0.875567 0.136621 0.482925
Ar 0.642877 0.484805 0.379005
Ar 0.507665 0.736736 0.776800
Ar 0.092349 0.776076 0.136192
Ar 2.999919 0.000012 0.000016
Ar -0.000014 2.999923 0.000025
Ar 0.000022 0.000021 2.999916
Ar -1.999997 -1.999997 -1.999997
Ar -1.999965 2.999993 0.699990
Ar 1.097321 1.296393 1.495764
Ar 29.000000 4.000000 0.000000
Ar 0.700000 11.000000 0.100000
20
Iteration: 8, Potential Energy: -1.460601, Kinetic Energy: 0.366927, Total Energy: -1.093674
Ar 0.317050 0.045788 0.061798
Ar 0.047380 0.066505 0.356910
Ar 0.050204 0.441122 -0.342122
Ar 0.439444 -0.137764 0.412872
Ar 0.397105 0.222696 0.437950
Ar 0.295018 0.545753 0.526580
Ar 0.644858 0.347244 0.751028
Ar 0.250861 0.397605 0.172220
Ar 0.801967 0.172921 0.436935
Ar 0.626353 0.466777 0.335756
Ar 0.525510 0.725023 0.739302
Ar 0.107778 0.711050 0.116284
Ar 2.999895 0.000015 0.000020
Ar -0.000018 2.999899 0.000033
Ar 0.000028 0.000028 2.999891
Ar -1.999997 -1.999997 -1.999997
Ar -1.999955 2.999990 0.699986
Ar 1.096517 1.295345 1.494552
Ar 29.000000 4.000000 0.000000
Ar 0.700000 11.000000 0.100000
20
Iteration: 9, Potential Energy: -1.610224, Kinetic Energy: 0.514599, Total Energy: -1.095624
Ar 0.438677 0.057776 0.135001
Ar 0.089501 0.119148 0.312178
Ar 0.075426 0.432826 -0.261031
Ar 0.434346 -0.174585 0.427336
Ar 0.382979 0.208800 0.484916
Ar 0.259406 0.533582 0.522854
Ar 0.603410 0.323180 0.715238
Ar 0.243396 0.410796 0.192059
Ar 0.739377 0.154001 0.402481
Ar 0.561026 0.531662 0.290498
Ar 0.584514 0.681143 0.693298
Ar 0.092382 0.727573 0.092054
Ar 2.999867 0.000019 0.000026
Ar -0.000023 2.999872 0.000041
Ar 0.000036 0.000035 2.999863
Ar -1.999996 -1.999996 -1.999996
Ar -1.999943 2.999988 0.699983
Ar 1.095618 1.294178 1.493202
Ar 29.000000 4.000000 0.000000
Ar 0.700000 11.000000 0.100000
20
Iteration: 10, Potential Energy: -1.508529, Kinetic Energy: 0.407627, Total Energy: -1.100902
Ar 0.477695 0.065532 0.150942
Ar 0.055471 0.073436 0.240623
Ar 0.103910 0.444208 -0.147218
Ar 0.424630 -0.180185 0.447832
Ar 0.335211 0.172672 0.479333
Ar 0.239130 0.573092 0.545133
Ar 0.616146 0.299920 0.729781
Ar 0.230247 0.398343 0.163093
Ar 0.790871 0.141626 0.410267
Ar 0.532885 0.564195 0.309700
Ar 0.631582 0.687336 0.625022
Ar 0.067653 0.767017 0.053865
Ar 2.999836 0.000024 0.000032
Ar -0.000028 2.999842 0.000051
Ar 0.000044 0.000043 2.999831
Ar -1.999995 -1.999995 -1.999995
Ar -1.999930 2.999985 0.699979
Ar 1.094642 1.292909 1.491730
Ar 29.000000 4.000000 0.000000
Ar 0.700000 11.000000 0.100000
20
Iteration: 11, Potential Energy: -1.395866, Kinetic Energy: 0.303706, Total Energy: -1.092160
Ar 0.405686 0.103097 0.129416
Ar 0.072905 0.023744 0.169191
Ar 0.074943 0.463327 -0.171800
Ar 0.423130 -0.168202 0.453563
Ar 0.347621 0.170115 0.520041
Ar 0.280706 0.567208 0.539312
Ar 0.596102 0.300154 0.711308
Ar 0.168181 0.387631 0.220652
Ar 0.841016 0.162108 0.469553
Ar 0.564595 0.540280 0.281757
Ar 0.657458 0.701982 0.642280
Ar 0.074148 0.757139 0.044709
Ar 2.999802 0.000029 0.000039
Ar -0.000034 2.999808 0.000061
Ar 0.000053 0.000052 2.999796
Ar -1.999994 -1.999994 -1.999994
Ar -1.999915 2.999982 0.699974
Ar 1.093597 1.291542 1.490140
Ar 29.000000 4.000000 0.000000
Ar 0.700000 11.000000 0.100000
20
Iteration: 12, Potential Energy: -1.493282, Kinetic Energy: 0.398844, Total Energy: -1.094438
Ar 0.420988 0.185515 0.176529
Ar 0.051811 -0.014147 0.143827
Ar 0.066069 0.431557 -0.162327
Ar 0.433088 -0.162215 0.402117
Ar 0.280190 0.180090 0.491429
Ar 0.338718 0.526042 0.533203
Ar 0.597846 0.361490 0.758210
Ar 0.082513 0.405545 0.204925
Ar 0.851221 0.183175 0.478384
Ar 0.628266 0.466446 0.299041
Ar 0.655629 0.702884 0.605678
Ar 0.101287 0.743693 0.080710
Ar 2.999765 0.000034 0.000046
Ar -0.000041 2.999771 0.000072
Ar 0.000063 0.000062 2.999758
Ar -1.999992 -1.999992 -1.999993
Ar -1.999899 2.999978 0.699970
Ar 1.092479 1.290070 1.488420
Ar 29.000000 4.000000 0.000000
Ar 0.700000 11.000000 0.100000
20
Iteration: 13, Potential Energy: -1.605998, Kinetic Energy: 0.510811, Total Energy: -1.095187
Ar 0.393753 0.237002 0.164739
Ar 0.103703 0.014250 0.161609
Ar 0.073687 0.407627 -0.113051
Ar 0.426562 -0.082557 0.314289
Ar 0.184090 0.129542 0.503360
Ar 0.346332 0.517214 0.507806
Ar 0.575296 0.340203 0.732267
Ar 0.071453 0.353193 0.254100
Ar 0.832735 0.167946 0.552549
Ar 0.686668 0.468142 0.306050
Ar 0.675455 0.745141 0.528503
Ar 0.139098 0.713978 0.101380
Ar 2.999724 0.000040 0.000054
Ar -0.000048 2.999732 0.000085
Ar 0.000073 0.000072 2.999717
Ar -1.999991 -1.999991 -1.999991
Ar -1.999882 2.999975 0.699964
Ar 1.091291 1.288492 1.486572
Ar 29.000000 4.000000 0.000000
Ar 0.700000 11.000000 0.100000
20
Iteration: 14, Potential Energy: -1.578105, Kinetic Energy: 0.485059, Total Energy: -1.093046
Ar 0.379213 0.330396 0.112149
Ar 0.108809 0.042383 0.144950
Ar 0.096777 0.345834 -0.053547
Ar 0.485071 -0.034776 0.285072
Ar 0.162702 0.104691 0.533582
Ar 0.343959 0.502262 0.421524
Ar 0.541335 0.341276 0.675372
Ar 0.004089 0.392431 0.335786
Ar 0.843625 0.090847 0.635534
Ar 0.681862 0.450161 0.274258
Ar 0.646827 0.784399 0.508060
Ar 0.215835 0.663477 0.142858
Ar 2.999680 0.000046 0.000062
Ar -0.000055 2.999689 0.000098
Ar 0.000085 0.000083 2.999673
Ar -1.999990 -1.999990 -1.999990
Ar -1.999863 2.999971 0.699959
Ar 1.090039 1.286819 1.484602
Ar 29.000000 4.000000 0.000000
Ar 0.700000 11.000000 0.100000
20
Iteration: 15, Potential Energy: -1.677960, Kinetic Energy: 0.578430, Total Energy: -1.099530
Ar 0.427316 0.304344 0.052284
Ar 0.137246 0.095982 0.177732
Ar -0.028342 0.345538 -0.089452
Ar 0.522661 0.085327 0.307562
Ar 0.236850 0.138187 0.517791
Ar 0.308190 0.541417 0.478336
Ar 0.570364 0.279027 0.610818
Ar -0.041612 0.360604 0.376117
Ar 0.814033 0.038500 0.689096
Ar 0.697520 0.419177 0.313177
Ar 0.583025 0.762355 0.480456
Ar 0.284184 0.644711 0.103787
Ar 2.999633 0.000053 0.000072
Ar -0.000064 2.999642 0.000112
Ar 0.000097 0.000095 2.999625
Ar -1.999988 -1.999988 -1.999989
Ar -1.999843 2.999966 0.699953
Ar 1.088730 1.285065 1.482523
Ar 29.000000 4.000000 0.000000
Ar 0.700000 11.000000 0.100000
20
Iteration: 16, Potential Energy: -1.556602, Kinetic Energy: 0.461175, Total Energy: -1.095427
Ar 0.453045 0.297671 -0.035597
Ar 0.178732 0.151222 0.165764
Ar -0.095728 0.366105 -0.057729
Ar 0.546025 0.099664 0.271433
Ar 0.232454 0.159901 0.570869
Ar 0.264228 0.515036 0.460998
Ar 0.621621 0.321125 0.708118
Ar -0.045332 0.338328 0.364767
Ar 0.803553 -0.046222 0.727132
Ar 0.694244 0.449071 0.295454
Ar 0.536971 0.738162 0.435991
Ar 0.323006 0.626963 0.112709
Ar 2.999582 0.000061 0.000082
Ar -0.000072 2.999593 0.000127
Ar 0.000110 0.000107 2.999575
Ar -1.999987 -1.999987 -1.999987
Ar -1.999822 2.999962 0.699946
Ar 1.087370 1.283238 1.480350
Ar 29.000000 4.000000 0.000000
Ar 0.700000 11.000000 0.100000
20
Iteration: 17, Potential Energy: -1.435037, Kinetic Energy: 0.340308, Total Energy: -1.094729
Ar 0.520884 0.302430 -0.087045
Ar 0.216168 0.230988 0.167616
Ar -0.095287 0.371955 0.026928
Ar 0.545154 0.090652 0.258368
Ar 0.203433 0.124724 0.550493
Ar 0.252541 0.450245 0.456719
Ar 0.663794 0.389776 0.778365
Ar -0.089680 0.321942 0.372063
Ar 0.774020 -0.102771 0.748537
Ar 0.645760 0.438372 0.226482
Ar 0.506786 0.803247 0.407034
Ar 0.370682 0.597401 0.116641
Ar 2.999528 0.000068 0.000092
Ar -0.000081 2.999541 0.000143
Ar 0.000124 0.000121 2.999521
Ar -1.999985 -1.999985 -1.999986
Ar -1.999799 2.999957 0.699939
Ar 1.085959 1.281337 1.478089
Ar 29.000000 4.000000 0.000000
Ar 0.700000 11.000000 0.100000
20
Iteration: 18, Potential Energy: -1.444907, Kinetic Energy: 0.350796, Total Energy: -1.094110
Ar 0.534982 0.300900 -0.068646
Ar 0.249201 0.253542 0.150381
Ar -0.087099 0.403279 0.032331
Ar 0.532195 0.077341 0.272037
Ar 0.188872 0.029144 0.473695
Ar 0.305481 0.495565 0.459209
Ar 0.682328 0.439470 0.799873
Ar -0.069139 0.293450 0.468899
Ar 0.728546 -0.128758 0.758270
Ar 0.657926 0.437354 0.271376
Ar 0.480757 0.790650 0.357530
Ar 0.311697 0.629051 0.049638
Ar 2.999470 0.000077 0.000103
Ar -0.000091 2.999486 0.000160
Ar 0.000139 0.000135 2.999464
Ar -1.999983 -1.999983 -1.999984
Ar -1.999775 2.999951 0.699932
Ar 1.084493 1.279349 1.475732
Ar 29.000000 4.000000 0.000000
Ar 0.700000 11.000000 0.100000
20
Iteration: 19, Potential Energy: -1.398361, Kinetic Energy: 0.311322, Total Energy: -1.087039
Ar 0.538191 0.318533 -0.000170
Ar 0.217836 0.273192 0.173745
Ar -0.057067 0.454490 0.074183
Ar 0.554566 0.086745 0.306241
Ar 0.207097 -0.034609 0.372439
Ar 0.298782 0.444235 0.466693
Ar 0.678497 0.480175 0.776753
Ar 0.014779 0.289418 0.494369
Ar 0.671805 -0.135281 0.753356
Ar 0.630945 0.439209 0.316343
Ar 0.494234 0.786321 0.268418
Ar 0.267639 0.620686 0.024721
Ar 2.999409 0.000085 0.000115
Ar -0.000101 2.999427 0.000177
Ar 0.000155 0.000149 2.999403
Ar -1.999981 -1.999981 -1.999982
Ar -1.999749 2.999946 0.699924
Ar 1.082966 1.277261 1.473271
Ar 29.000000 4.000000 0.000000
Ar 0.700000 11.000000 0.100000
20
Iteration: 20, Potential Energy: -1.482999, Kinetic Energy: 0.392005, Total Energy: -1.090994
Ar 0.555249 0.344040 0.026982
Ar 0.228942 0.256237 0.221679
Ar -0.114814 0.539445 0.132482
Ar 0.550100 0.115379 0.341104
Ar 0.209918 -0.088615 0.320988
Ar 0.360657 0.482988 0.516802
Ar 0.646942 0.509180 0.699336
Ar -0.018185 0.186017 0.466769
Ar 0.603072 -0.120539 0.722871
Ar 0.714300 0.478523 0.361958
Ar 0.512468 0.759064 0.200398
Ar 0.270275 0.563626 0.018333
Ar 2.999345 0.000095 0.000127
Ar -0.000112 2.999366 0.000196
Ar 0.000171 0.000165 2.999339
Ar -1.999980 -1.999979 -1.999980
Ar -1.999722 2.999940 0.699916
Ar 1.081375 1.275070 1.470700
Ar 29.000000 4.000000 0.000000
Ar 0.700000 11.000000 0.100000
20
Iteration: 21, Potential Energy: -1.589172, Kinetic Energy: 0.495472, Total Energy: -1.093700
Ar 0.578605 0.354080 0.081028
Ar 0.214332 0.261655 0.224957
Ar -0.111289 0.579610 0.213223
Ar 0.535915 0.184406 0.417417
Ar 0.241312 -0.122411 0.305481
Ar 0.342953 0.511136 0.472033
Ar 0.669763 0.536849 0.711069
Ar -0.043132 0.081863 0.441023
Ar 0.517876 -0.074856 0.649022
Ar 0.813483 0.487028 0.336858
Ar 0.536210 0.681514 0.179187
Ar 0.224576 0.546801 0.001122
Ar 2.999278 0.000104 0.000140
Ar -0.000124 2.999301 0.000216
Ar 0.000188 0.000181 2.999272
Ar -1.999978 -1.999977 -1.999978
Ar -1.999694 2.999934 0.699907
Ar 1.079725 1.272783 1.468021
Ar 29.000000 4.000000 0.000000
Ar 0.700000 11.000000 0.100000
20
Iteration: 22, Potential Energy: -1.594022, Kinetic Energy: 0.499321, Total Energy: -1.094701
Ar 0.508348 0.276612 0.090993
Ar 0.183109 0.232404 0.208398
Ar -0.023585 0.575029 0.292121
Ar 0.565795 0.279978 0.462611
Ar 0.306835 -0.102470 0.283444
Ar 0.323394 0.586110 0.457464
Ar 0.660609 0.542763 0.658129
Ar -0.043158 -0.001354 0.408781
Ar 0.417966 -0.062260 0.618911
Ar 0.865094 0.477696 0.376818
Ar 0.552665 0.676707 0.165337
Ar 0.205277 0.548895 0.012255
Ar 2.999208 0.000115 0.000154
Ar -0.000135 2.999233 0.000236
Ar 0.000206 0.000198 2.999202
Ar -1.999975 -1.999975 -1.999976
Ar -1.999664 2.999927 0.699898
Ar 1.078012 1.270393 1.465223
Ar 29.000000 4.000000 0.000000
Ar 0.700000 11.000000 0.100000
20
Iteration: 23, Potential Energy: -1.552587, Kinetic Energy: 0.455829, Total Energy: -1.096758
Ar 0.476839 0.257047 0.092622
Ar 0.130898 0.235597 0.258093
Ar -0.040532 0.550998 0.347588
Ar 0.543497 0.241388 0.442790
Ar 0.341534 -0.062902 0.174860
Ar 0.356697 0.649135 0.472698
Ar 0.634257 0.619773 0.667050
Ar 0.001821 -0.075701 0.373848
Ar 0.356697 0.000563 0.660083
Ar 0.862258 0.464470 0.344665
Ar 0.595520 0.612890 0.147330
Ar 0.264671 0.539388 0.056601
Ar 2.999134 0.000126 0.000168
Ar -0.000148 2.999162 0.000258
Ar 0.000225 0.000215 2.999129
Ar -1.999973 -1.999973 -1.999974
Ar -1.999633 2.999920 0.699889
Ar 1.076236 1.267903 1.462302
Ar 29.000000 4.000000 0.000000
Ar 0.700000 11.000000 0.100000
20
Iteration: 24, Potential Energy: -1.649479, Kinetic Energy: 0.553550, Total Energy: -1.095929
Ar 0.489624 0.270375 0.046233
Ar 0.181947 0.245398 0.315818
Ar -0.071472 0.558841 0.374536
Ar 0.499891 0.286614 0.428219
Ar 0.339210 -0.065419 0.141455
Ar 0.356702 0.661257 0.401605
Ar 0.729252 0.637285 0.681530
Ar 0.086877 -0.168012 0.362767
Ar 0.257843 0.072367 0.629569
Ar 0.862221 0.391487 0.413623
Ar 0.600321 0.603116 0.147029
Ar 0.193629 0.541991 0.098955
Ar 2.999056 0.000137 0.000183
Ar -0.000161 2.999088 0.000280
Ar 0.000245 0.000234 2.999052
Ar -1.999971 -1.999971 -1.999972
Ar -1.999601 2.999913 0.699879
Ar 1.074385 1.265300 1.459239
Ar 29.000000 4.000000 0.000000
Ar 0.700000 11.000000 0.100000
20
Iteration: 25, Potential Energy: -1.544447, Kinetic Energy: 0.448921, Total Energy: -1.095526
Ar 0.456180 0.296259 0.032745
Ar 0.157592 0.252402 0.267711
Ar -0.020302 0.546784 0.397440
Ar 0.524549 0.366130 0.394257
Ar 0.362130 -0.048225 0.126270
Ar 0.339707 0.672286 0.466393
Ar 0.778829 0.633737 0.636697
Ar 0.154773 -0.216646 0.409088
Ar 0.163674 0.094528 0.626618
Ar 0.893034 0.301860 0.500712
Ar 0.599310 0.616481 0.156563
Ar 0.118543 0.522490 0.030129
Ar 2.998976 0.000149 0.000198
Ar -0.000174 2.999010 0.000303
Ar 0.000265 0.000253 2.998973
Ar -1.999969 -1.999968 -1.999969
Ar -1.999567 2.999906 0.699869
Ar 1.072452 1.262562 1.456003
Ar 29.000000 4.000000 0.000000
Ar 0.700000 11.000000 0.100000
20
Iteration: 26, Potential Energy: -1.444966, Kinetic Energy: 0.351482, Total Energy: -1.093484
Ar 0.405168 0.366607 0.020647
Ar 0.157586 0.225590 0.271078
Ar 0.026254 0.514943 0.405457
Ar 0.518810 0.318779 0.400562
Ar 0.385153 -0.050748 0.146300
Ar 0.340167 0.718945 0.497190
Ar 0.761683 0.610187 0.545141
Ar 0.232780 -0.209510 0.445216
Ar 0.098872 0.121508 0.599594
Ar 0.924758 0.220728 0.560548
Ar 0.577477 0.666168 0.190059
Ar 0.101357 0.537814 -0.033712
Ar 2.998891 0.000162 0.000214
Ar -0.000188 2.998930 0.000328
Ar 0.000286 0.000272 2.998890
Ar -1.999966 -1.999966 -1.999967
Ar -1.999532 2.999898 0.699858
Ar 1.070444 1.259692 1.452598
Ar 29.000000 4.000000 0.000000
Ar 0.700000 11.000000 0.100000
20
Iteration: 27, Potential Energy: -1.568119, Kinetic Energy: 0.475103, Total Energy: -1.093016
Ar 0.429354 0.385515 0.043610
Ar 0.171182 0.190833 0.212750
Ar 0.054669 0.518521 0.415107
Ar 0.464423 0.294479 0.391063
Ar 0.459174 -0.023876 0.157135
Ar 0.391316 0.712132 0.544940
Ar 0.735210 0.521317 0.467585
Ar 0.297492 -0.138003 0.483540
Ar 0.054356 0.147910 0.587740
Ar 0.893660 0.192449 0.598976
Ar 0.524949 0.693923 0.168438
Ar 0.056392 0.548841 -0.019210
Ar 2.998803 0.000175 0.000230
Ar -0.000202 2.998846 0.000353
Ar 0.000308 0.000293 2.998805
Ar -1.999963 -1.999963 -1.999964
Ar -1.999495 2.999890 0.699847
Ar 1.068373 1.256719 1.449055
Ar 29.000000 4.000000 0.000000
Ar 0.700000 11.000000 0.100000
20
Iteration: 28, Potential Energy: -1.575059, Kinetic Energy: 0.477011, Total Energy: -1.098047
Ar 0.421493 0.340427 0.038120
Ar 0.101252 0.176097 0.176085
Ar 0.152587 0.506635 0.387249
Ar 0.400984 0.300397 0.414816
Ar 0.554840 0.043072 0.182331
Ar 0.425478 0.624856 0.576584
Ar 0.710198 0.465007 0.418955
Ar 0.349005 -0.031080 0.498378
Ar 0.054604 0.195320 0.535470
Ar 0.825321 0.168013 0.624557
Ar 0.462834 0.746770 0.134839
Ar 0.075754 0.511647 0.068003
Ar 2.998712 0.000189 0.000247
Ar -0.000217 2.998759 0.000379
Ar 0.000330 0.000314 2.998716
Ar -1.999961 -1.999960 -1.999962
Ar -1.999457 2.999882 0.699836
Ar 1.066240 1.253656 1.445396
Ar 29.000000 4.000000 0.000000
Ar 0.700000 11.000000 0.100000
20
Iteration: 29, Potential Energy: -1.714042, Kinetic Energy: 0.619645, Total Energy: -1.094397
Ar 0.401484 0.353065 0.070409
Ar 0.113414 0.133996 0.164755
Ar 0.125576 0.633547 0.432406
Ar 0.379869 0.284911 0.420892
Ar 0.657464 0.081623 0.242373
Ar 0.491921 0.579045 0.621880
Ar 0.777448 0.482097 0.303234
Ar 0.378890 -0.080472 0.516240
Ar 0.063722 0.226558 0.522170
Ar 0.705731 0.135639 0.615653
Ar 0.361079 0.693417 0.171365
Ar 0.079995 0.526944 -0.022170
Ar 2.998617 0.000204 0.000265
Ar -0.000233 2.998669 0.000406
Ar 0.000353 0.000336 2.998624
Ar -1.999958 -1.999958 -1.999959
Ar -1.999418 2.999873 0.699824
Ar 1.064047 1.250506 1.441631
Ar 29.000000 4.000000 0.000000
Ar 0.700000 11.000000 0.100000
20
Iteration: 30, Potential Energy: -1.600856, Kinetic Energy: 0.507409, Total Energy: -1.093448
Ar 0.477991 0.309446 0.041223
Ar 0.176315 0.128636 0.199639
Ar 0.092324 0.650650 0.540544
Ar 0.364820 0.329013 0.392577
Ar 0.722266 0.127682 0.256882
Ar 0.561145 0.547299 0.628907
Ar 0.763454 0.466616 0.203248
Ar 0.371114 -0.106952 0.476840
Ar 0.008064 0.262689 0.526352
Ar 0.601769 0.163394 0.664769
Ar 0.321564 0.635164 0.204256
Ar 0.078069 0.540031 -0.072100
Ar 2.998519 0.000218 0.000284
Ar -0.000249 2.998576 0.000435
Ar 0.000377 0.000358 2.998528
Ar -1.999955 -1.999955 -1.999956
Ar -1.999377 2.999865 0.699811
Ar 1.061790 1.247269 1.437761
Ar 29.000000 4.000000 0.000000
Ar 0.700000 11.000000 0.100000
20
Iteration: 31, Potential Energy: -1.591657, Kinetic Energy: 0.497501, Total Energy: -1.094156
Ar 0.492491 0.248822 -0.010907
Ar 0.185964 0.118142 0.164704
Ar 0.110171 0.610355 0.640299
Ar 0.377520 0.318557 0.462322
Ar 0.682169 0.114033 0.301281
Ar 0.641219 0.554194 0.604245
Ar 0.695021 0.543625 0.157185
Ar 0.359367 -0.080923 0.417290
Ar 0.017104 0.291165 0.476115
Ar 0.548040 0.198012 0.740867
Ar 0.316549 0.628934 0.194928
Ar 0.115655 0.512148 -0.081150
Ar 2.998417 0.000234 0.000303
Ar -0.000265 2.998480 0.000464
Ar 0.000402 0.000381 2.998430
Ar -1.999952 -1.999952 -1.999953
Ar -1.999335 2.999855 0.699799
Ar 1.059464 1.243936 1.433780
Ar 29.000000 4.000000 0.000000
Ar 0.700000 11.000000 0.100000
20
Iteration: 32, Potential Energy: -1.650559, Kinetic Energy: 0.555560, Total Energy: -1.094999
Ar 0.504817 0.248420 0.001266
Ar 0.160412 0.181762 0.119756
Ar 0.196619 0.554442 0.691615
Ar 0.354609 0.341737 0.444186
Ar 0.676543 0.169184 0.319637
Ar 0.698945 0.557849 0.530676
Ar 0.652832 0.546309 0.162824
Ar 0.350722 -0.055063 0.438812
Ar -0.003484 0.286406 0.410876
Ar 0.514470 0.188992 0.799545
Ar 0.262936 0.594822 0.246183
Ar 0.174300 0.445712 -0.094032
Ar 2.998312 0.000250 0.000322
Ar -0.000282 2.998381 0.000494
Ar 0.000427 0.000406 2.998328
Ar -1.999949 -1.999949 -1.999950
Ar -1.999292 2.999846 0.699785
Ar 1.057062 1.240495 1.429675
Ar 29.000000 4.000000 0.000000
Ar 0.700000 11.000000 0.100000
20
Iteration: 33, Potential Energy: -1.625751, Kinetic Energy: 0.530884, Total Energy: -1.094868
Ar 0.485564 0.231891 0.002589
Ar 0.190709 0.133113 0.168142
Ar 0.273878 0.491890 0.726976
Ar 0.420029 0.324235 0.414562
Ar 0.751559 0.226150 0.316178
Ar 0.694448 0.511182 0.542493
Ar 0.640037 0.564384 0.131848
Ar 0.288611 -0.019527 0.466744
Ar -0.047141 0.341112 0.439861
Ar 0.459291 0.208364 0.762922
Ar 0.119288 0.574939 0.250090
Ar 0.269979 0.476459 -0.146767
Ar 2.998204 0.000266 0.000342
Ar -0.000300 2.998279 0.000524
Ar 0.000453 0.000430 2.998223
Ar -1.999946 -1.999946 -1.999947
Ar -1.999247 2.999836 0.699772
Ar 1.054584 1.236943 1.425445
Ar 29.000000 4.000000 0.000000
Ar 0.700000 11.000000 0.100000
20
Iteration: 34, Potential Energy: -1.601983, Kinetic Energy: 0.508785, Total Energy: -1.093198
Ar 0.522892 0.192716 0.037213
Ar 0.133654 0.174530 0.217741
Ar 0.284104 0.519827 0.687907
Ar 0.409226 0.401090 0.319711
Ar 0.811203 0.239260 0.265447
Ar 0.655225 0.483462 0.641792
Ar 0.588457 0.583942 0.098164
Ar 0.220985 -0.044726 0.546708
Ar -0.022882 0.306245 0.522202
Ar 0.491464 0.156837 0.688593
Ar 0.105415 0.539379 0.176300
Ar 0.349117 0.515365 -0.121716
Ar 2.998092 0.000283 0.000363
Ar -0.000318 2.998174 0.000556
Ar 0.000480 0.000456 2.998114
Ar -1.999943 -1.999942 -1.999944
Ar -1.999201 2.999826 0.699758
Ar 1.052028 1.233277 1.421091
Ar 29.000000 4.000000 0.000000
Ar 0.700000 11.000000 0.100000
20
Iteration: 35, Potential Energy: -1.557977, Kinetic Energy: 0.463548, Total Energy: -1.094429
Ar 0.495176 0.214346 0.059648
Ar 0.108667 0.160303 0.252019
Ar 0.262742 0.556801 0.650921
Ar 0.419517 0.376436 0.341832
Ar 0.811414 0.323532 0.263466
Ar 0.641632 0.496468 0.670282
Ar 0.689732 0.614108 0.118099
Ar 0.125584 -0.054066 0.555280
Ar 0.041549 0.279155 0.620132
Ar 0.501661 0.108312 0.577315
Ar 0.102547 0.521322 0.125947
Ar 0.351331 0.475071 -0.150323
Ar 2.997977 0.000301 0.000384
Ar -0.000337 2.998066 0.000589
Ar 0.000508 0.000483 2.998001
Ar -1.999939 -1.999939 -1.999941
Ar -1.999153 2.999815 0.699744
Ar 1.049390 1.229490 1.416607
Ar 29.000000 4.000000 0.000000
Ar 0.700000 11.000000 0.100000
20
Iteration: 36, Potential Energy: -1.485854, Kinetic Energy: 0.388834, Total Energy: -1.097020
Ar 0.469165 0.164524 0.044097
Ar 0.173036 0.164510 0.298488
Ar 0.285320 0.654958 0.661137
Ar 0.408783 0.441782 0.368338
Ar 0.775688 0.328889 0.362337
Ar 0.635214 0.503602 0.631116
Ar 0.688397 0.662380 0.112229
Ar 0.110409 -0.124775 0.541367
Ar 0.059596 0.286116 0.675374
Ar 0.441977 0.035799 0.446182
Ar 0.129942 0.488151 0.146425
Ar 0.376810 0.469836 -0.197775
Ar 2.997859 0.000319 0.000405
Ar -0.000357 2.997955 0.000623
Ar 0.000536 0.000510 2.997885
Ar -1.999936 -1.999936 -1.999937
Ar -1.999104 2.999805 0.699729
Ar 1.046664 1.225575 1.411980
Ar 29.000000 4.000000 0.000000
Ar 0.700000 11.000000 0.100000
20
Iteration: 37, Potential Energy: -1.576403, Kinetic Energy: 0.482958, Total Energy: -1.093445
Ar 0.428154 0.183122 0.124926
Ar 0.126778 0.188722 0.325831
Ar 0.295293 0.690979 0.634659
Ar 0.422837 0.477665 0.362124
Ar 0.699229 0.256221 0.373967
Ar 0.627711 0.553065 0.688750
Ar 0.619914 0.647283 0.131554
Ar 0.127838 -0.121770 0.517387
Ar 0.156479 0.289103 0.658165
Ar 0.515915 -0.059677 0.387543
Ar 0.142287 0.499096 0.060791
Ar 0.394791 0.476090 -0.171517
Ar 2.997737 0.000337 0.000428
Ar -0.000377 2.997841 0.000657
Ar 0.000566 0.000538 2.997765
Ar -1.999933 -1.999932 -1.999934
Ar -1.999054 2.999794 0.699713
Ar 1.043835 1.221523 1.407192
Ar 29.000000 4.000000 0.000000
Ar 0.700000 11.000000 0.100000
20
Iteration: 38, Potential Energy: -1.634733, Kinetic Energy: 0.538206, Total Energy: -1.096527
Ar 0.404088 0.255342 0.105015
Ar 0.067378 0.233739 0.300446
Ar 0.247451 0.725062 0.634133
Ar 0.350896 0.472768 0.376397
Ar 0.665566 0.212050 0.386159
Ar 0.613266 0.562528 0.705156
Ar 0.565569 0.617539 0.140852
Ar 0.197808 -0.074942 0.495161
Ar 0.298770 0.307036 0.698922
Ar 0.529443 -0.163293 0.369011
Ar 0.131036 0.493090 0.065166
Ar 0.488971 0.443272 -0.177180
Ar 2.997612 0.000357 0.000450
Ar -0.000397 2.997724 0.000693
Ar 0.000596 0.000567 2.997642
Ar -1.999929 -1.999928 -1.999930
Ar -1.999002 2.999783 0.699698
Ar 1.040879 1.217308 1.402209
Ar 29.000000 4.000000 0.000000
Ar 0.700000 11.000000 0.100000
20
Iteration: 39, Potential Energy: -1.590050, Kinetic Energy: 0.483768, Total Energy: -1.106282
Ar 0.402711 0.224744 0.093920
Ar 0.029138 0.253931 0.327673
Ar 0.220799 0.734550 0.669323
Ar 0.292572 0.466419 0.436289
Ar 0.554141 0.230997 0.421762
Ar 0.548388 0.569932 0.637266
Ar 0.564369 0.595860 0.147803
Ar 0.285678 0.048606 0.479923
Ar 0.394246 0.244487 0.764659
Ar 0.540417 -0.223952 0.335639
Ar 0.177888 0.528133 0.054931
Ar 0.553053 0.414954 -0.264686
Ar 2.997483 0.000376 0.000473
Ar -0.000418 2.997604 0.000729
Ar 0.000626 0.000596 2.997516
Ar -1.999925 -1.999925 -1.999927
Ar -1.998949 2.999771 0.699682
Ar 1.037781 1.212918 1.397025
Ar 29.000000 4.000000 0.000000
Ar 0.700000 11.000000 0.100000
20
Iteration: 40, Potential Energy: -1.528954, Kinetic Energy: 0.433232, Total Energy: -1.095723
Ar 0.370169 0.207555 0.140425
Ar -0.050619 0.245248 0.271621
Ar 0.205780 0.728610 0.708204
Ar 0.237462 0.446859 0.448775
Ar 0.659117 0.320428 0.429309
Ar 0.568319 0.649079 0.588451
Ar 0.567803 0.520736 0.169878
Ar 0.230355 0.053941 0.457144
Ar 0.457918 0.193217 0.775269
Ar 0.532296 -0.210561 0.310678
Ar 0.202068 0.547758 0.073162
Ar 0.586034 0.390417 -0.262961
Ar 2.997352 0.000396 0.000497
Ar -0.000439 2.997481 0.000766
Ar 0.000658 0.000627 2.997386
Ar -1.999922 -1.999921 -1.999923
Ar -1.998894 2.999759 0.699665
Ar 1.034544 1.208371 1.391654
Ar 29.000000 4.000000 0.000000
Ar 0.700000 11.000000 0.100000
20
Iteration: 41, Potential Energy: -1.628854, Kinetic Energy: 0.533243, Total Energy: -1.095611
Ar 0.366555 0.213959 0.161997
Ar -0.051736 0.243729 0.195127
Ar 0.217444 0.685854 0.718013
Ar 0.292604 0.421761 0.448995
Ar 0.744574 0.275654 0.478823
Ar 0.531215 0.722914 0.528643
Ar 0.566018 0.522795 0.155378
Ar 0.174641 0.050422 0.495069
Ar 0.487808 0.184030 0.696880
Ar 0.481047 -0.116734 0.300048
Ar 0.167879 0.521739 0.120508
Ar 0.592102 0.371955 -0.183870
Ar 2.997218 0.000417 0.000521
Ar -0.000461 2.997355 0.000805
Ar 0.000690 0.000658 2.997252
Ar -1.999918 -1.999917 -1.999919
Ar -1.998839 2.999747 0.699649
Ar 1.031158 1.203663 1.386081
Ar 29.000000 4.000000 0.000000
Ar 0.700000 11.000000 0.100000
20
Iteration: 42, Potential Energy: -1.658355, Kinetic Energy: 0.560678, Total Energy: -1.097677
Ar 0.337352 0.228062 0.107712
Ar 0.015264 0.187341 0.175640
Ar 0.226385 0.621937 0.715136
Ar 0.345757 0.400838 0.448055
Ar 0.788000 0.288279 0.419950
Ar 0.490225 0.771832 0.461767
Ar 0.564324 0.527355 0.192344